{
  "Acentric_Factor": 0.361,
  "BO_BSW": 0.0,
  "BO_GOR": 0.0,
  "BO_OilVisc1": 0.0,
  "BO_OilVisc2": 0.0,
  "BO_OilViscTemp1": 0.0,
  "BO_OilViscTemp2": 0.0,
  "BO_PNA_A": 0.0,
  "BO_PNA_N": 0.0,
  "BO_PNA_P": 0.0,
  "BO_SGG": 0.0,
  "BO_SGO": 0.0,
  "CAS_Number": "141-78-6",
  "Chao_Seader_Acentricity": 0.362,
  "Chao_Seader_Liquid_Molar_Volume": 98.5939,
  "Chao_Seader_Solubility_Parameter": 0.0043817731776,
  "Charge": 0,
  "ChemicalStructure": "",
  "Comments": "",
  "CompCreatorStudyFile": "",
  "COSMODBName": null,
  "Critical_Compressibility": 0.252,
  "Critical_Pressure": 3830000.0,
  "Critical_Temperature": 523.2,
  "Critical_Volume": 0.286,
  "CurrentDB": "ChemSep",
  "Dipole_Moment": 5.94E-30,
  "Electrolyte_Cp0": 0.0,
  "Electrolyte_DelGF": 0.0,
  "Electrolyte_DelHF": 0.0,
  "EnthalpyOfFusionAtTf": 10.48,
  "Formula": "CH3COOC2H5",
  "HVap_A": 49527000.0,
  "HVap_B": 0.37029,
  "HVap_C": 0.072685,
  "HVap_D": -0.077493,
  "HVap_E": 0.017381,
  "HVap_TMAX": 505.74,
  "HVap_TMIN": 189.6,
  "HydrationNumber": 0.0,
  "ID": 1313,
  "Ideal_Gas_Heat_Capacity_Const_A": 97183.0,
  "Ideal_Gas_Heat_Capacity_Const_B": -1121.4,
  "Ideal_Gas_Heat_Capacity_Const_C": 13.827,
  "Ideal_Gas_Heat_Capacity_Const_D": -0.0012343,
  "Ideal_Gas_Heat_Capacity_Const_E": 3.6158E-07,
  "IdealgasCpEquation": "16",
  "IG_Enthalpy_of_Formation_25C": -5045.109178092127,
  "IG_Entropy_of_Formation_25C": -4.43496212581812,
  "IG_Gibbs_Energy_of_Formation_25C": -3722.8252202794547,
  "InChI": "",
  "Ion_CpAq_a": 0.0,
  "Ion_CpAq_b": 0.0,
  "Ion_CpAq_c": 0.0,
  "IsBlackOil": false,
  "IsCOOLPROPSupported": false,
  "IsFPROPSSupported": false,
  "IsHydratedSalt": false,
  "IsHYPO": 0,
  "IsIon": false,
  "IsModified": false,
  "IsPF": 0,
  "IsSalt": false,
  "Liquid_Density_Const_A": 0.78926,
  "Liquid_Density_Const_B": 0.24295,
  "Liquid_Density_Const_C": 523.26,
  "Liquid_Density_Const_D": 0.25762,
  "Liquid_Density_Const_E": 0.0,
  "Liquid_Density_Tmax": 523.25,
  "Liquid_Density_Tmin": 189.6,
  "Liquid_Heat_Capacity_Const_A": 129430.0,
  "Liquid_Heat_Capacity_Const_B": 961.92,
  "Liquid_Heat_Capacity_Const_C": -0.12694,
  "Liquid_Heat_Capacity_Const_D": 0.034745,
  "Liquid_Heat_Capacity_Const_E": -3.1346E-05,
  "Liquid_Heat_Capacity_Tmax": 391.65,
  "Liquid_Heat_Capacity_Tmin": 189.3,
  "Liquid_Thermal_Conductivity_Const_A": 0.040771,
  "Liquid_Thermal_Conductivity_Const_B": -127.25,
  "Liquid_Thermal_Conductivity_Const_C": -0.26995,
  "Liquid_Thermal_Conductivity_Const_D": -0.0055753,
  "Liquid_Thermal_Conductivity_Const_E": 9.9363E-07,
  "Liquid_Thermal_Conductivity_Tmax": 350.21,
  "Liquid_Thermal_Conductivity_Tmin": 189.6,
  "Liquid_Viscosity_Const_A": 16.428,
  "Liquid_Viscosity_Const_B": -219.29,
  "Liquid_Viscosity_Const_C": -4.124,
  "Liquid_Viscosity_Const_D": 6.0568E-07,
  "Liquid_Viscosity_Const_E": 2.0,
  "LiquidDensityEquation": "105",
  "LiquidHeatCapacityEquation": "16",
  "LiquidThermalConductivityEquation": "16",
  "LiquidViscosityEquation": "101",
  "Molar_Weight": 88.10513,
  "MolarVolume_k1i": 0.0,
  "MolarVolume_k2i": 0.0,
  "MolarVolume_k3i": 0.0,
  "MolarVolume_v2i": 0.0,
  "MolarVolume_v3i": 0.0,
  "Name": "Ethyl_Acetate",
  "NBP": null,
  "NegativeIon": "",
  "NegativeIonStoichCoeff": 0,
  "Normal_Boiling_Point": 350.21,
  "OriginalDB": "ChemSep",
  "PC_SAFT_epsilon_k": 0.0,
  "PC_SAFT_m": 0.0,
  "PC_SAFT_sigma": 0.0,
  "PF_MM": null,
  "PF_SG": null,
  "PF_Tv1": null,
  "PF_Tv2": null,
  "PF_v1": null,
  "PF_v2": null,
  "PF_vA": null,
  "PF_vB": null,
  "PF_Watson_K": null,
  "PositiveIon": "",
  "PositiveIonStoichCoeff": 0,
  "PR_Volume_Translation_Coefficient": 0.0,
  "SMILES": "CC(=O)OCC",
  "Solid_Density_Const_A": 14.57,
  "Solid_Density_Const_B": -0.0085904,
  "Solid_Density_Const_C": 0.0,
  "Solid_Density_Const_D": 0.0,
  "Solid_Density_Const_E": 0.0,
  "Solid_Density_Tmax": 189.6,
  "Solid_Density_Tmin": 75.84,
  "Solid_Heat_Capacity_Const_A": -45470.0,
  "Solid_Heat_Capacity_Const_B": 2386.6,
  "Solid_Heat_Capacity_Const_C": -15.442,
  "Solid_Heat_Capacity_Const_D": 0.037388,
  "Solid_Heat_Capacity_Const_E": 1.0613E-05,
  "Solid_Heat_Capacity_Tmax": 189.6,
  "Solid_Heat_Capacity_Tmin": 90.0,
  "SolidDensityAtTs": 0.0,
  "SolidDensityEquation": "2",
  "SolidHeatCapacityEquation": "100",
  "SolidTs": 0.0,
  "SRK_Volume_Translation_Coefficient": 0.0,
  "StandardStateMolarVolume": 0.0,
  "StoichSum": 0,
  "Surface_Tension_Const_A": -0.025331,
  "Surface_Tension_Const_B": 12.715,
  "Surface_Tension_Const_C": -2.6443,
  "Surface_Tension_Const_D": -0.0005937,
  "Surface_Tension_Const_E": -2.7669E-06,
  "Surface_Tension_Tmax": 505.74,
  "Surface_Tension_Tmin": 189.6,
  "SurfaceTensionEquation": "16",
  "TemperatureOfFusion": 189.6,
  "UNIQUAC_Q": 3.12,
  "UNIQUAC_R": 3.48,
  "Vapor_Pressure_Constant_A": 93.16862,
  "Vapor_Pressure_Constant_B": -7073.291,
  "Vapor_Pressure_Constant_C": -10.65983,
  "Vapor_Pressure_Constant_D": 8.16528E-06,
  "Vapor_Pressure_Constant_E": 2.0,
  "Vapor_Pressure_TMAX": 523.3,
  "Vapor_Pressure_TMIN": 189.6,
  "Vapor_Thermal_Conductivity_Const_A": 2.3264E-07,
  "Vapor_Thermal_Conductivity_Const_B": 1.902,
  "Vapor_Thermal_Conductivity_Const_C": 102.58,
  "Vapor_Thermal_Conductivity_Const_D": -17015.0,
  "Vapor_Thermal_Conductivity_Const_E": 0.0,
  "Vapor_Thermal_Conductivity_Tmax": 990.21,
  "Vapor_Thermal_Conductivity_Tmin": 189.6,
  "Vapor_Viscosity_Const_A": 3.4514E-06,
  "Vapor_Viscosity_Const_B": 0.35236,
  "Vapor_Viscosity_Const_C": 732.29,
  "Vapor_Viscosity_Const_D": -3982.4,
  "Vapor_Viscosity_Const_E": 0.0,
  "Vapor_Viscosity_Tmax": 1000.0,
  "Vapor_Viscosity_Tmin": 189.6,
  "VaporizationEnthalpyEquation": "106",
  "VaporPressureEquation": "101",
  "VaporThermalConductivityEquation": "102",
  "VaporViscosityEquation": "102",
  "Z_Rackett": 0.0,
  "Elements": {
    "C": 4.0,
    "H": 8.0,
    "O": 2.0
  },
  "MODFACGroups": {
    "1": 1,
    "2": 1,
    "21": 1
  },
  "NISTMODFACGroups": {
    "1": 1,
    "2": 1,
    "21": 1
  },
  "UNIFACGroups": {
    "1": 1,
    "2": 1,
    "22": 1
  },
  "FullerDiffusionVolume": 94.3,
  "LennardJonesDiameter": 5.24E-10,
  "LennardJonesEnergy": 499.0,
  "Parachor": 0.0387,
  "Tag": "",
  "ExtraProperties": {},
  "COSTALD_SRK_Acentric_Factor": 0.35949,
  "COSTALD_Characteristic_Volume": 0.28529,
  "IsSolid": false,
  "ChemSepFamily": 56
}